256  
1    

1    
  0.0300000000000000   0.0000000000000000   0.0000000000000000
  -0.2351287200    0.0000000000   -0.0000000000
   0.0020251700    0.0000000000    0.0000000000
  -0.0004172600    0.0000000000   -0.0000000000
   0.0020548300    0.0000000000    0.0000000000
  -0.0002521600   -0.0000164700   -0.0000000000
  -0.0000161200    0.0004135700   -0.0000000000
  -0.0002438300    0.0000061300   -0.0000000000
  -0.0000436800   -0.0003542300   -0.0000000000
  -0.0003539800    0.0000000000   -0.0000000000
  -0.0000715300    0.0000000000   -0.0000000000
   0.0002819500    0.0000000000   -0.0000000000
  -0.0000478200    0.0000000000   -0.0000000000
  -0.0002521600    0.0000164700   -0.0000000000
  -0.0000161200   -0.0004135700   -0.0000000000
  -0.0002438300   -0.0000061300   -0.0000000000
  -0.0000436800    0.0003542300   -0.0000000000
  -0.0002521600    0.0000000000   -0.0000164700
  -0.0000161200    0.0000000000    0.0004135700
  -0.0002438300    0.0000000000    0.0000061300
  -0.0000436800    0.0000000000   -0.0003542300
  -0.0003013100    0.0000126100    0.0000126100
  -0.0001024400   -0.0000817300   -0.0000817300
   0.0000144000    0.0000018300    0.0000018300
  -0.0001068800    0.0000809500    0.0000809500
  -0.0002487400    0.0000000000   -0.0000023300
   0.0000548000    0.0000000000    0.0000105100
  -0.0000193500    0.0000000000   -0.0000005400
   0.0000544900    0.0000000000   -0.0000127200
  -0.0003013100   -0.0000126100    0.0000126100
  -0.0001024400    0.0000817300   -0.0000817300
   0.0000144000   -0.0000018300    0.0000018300
  -0.0001068800   -0.0000809500    0.0000809500
  -0.0003539800    0.0000000000   -0.0000000000
  -0.0000715300    0.0000000000   -0.0000000000
   0.0002819500    0.0000000000   -0.0000000000
  -0.0000478200    0.0000000000   -0.0000000000
  -0.0002487400   -0.0000023300   -0.0000000000
   0.0000548000    0.0000105100   -0.0000000000
  -0.0000193500   -0.0000005400   -0.0000000000
   0.0000544900   -0.0000127200   -0.0000000000
  -0.0004041500    0.0000000000   -0.0000000000
   0.0002109100    0.0000000000   -0.0000000000
   0.0000119400    0.0000000000   -0.0000000000
   0.0002116100    0.0000000000   -0.0000000000
  -0.0002487400    0.0000023300   -0.0000000000
   0.0000548000   -0.0000105100   -0.0000000000
  -0.0000193500    0.0000005400   -0.0000000000
   0.0000544900    0.0000127200   -0.0000000000
  -0.0002521600    0.0000000000    0.0000164700
  -0.0000161200    0.0000000000   -0.0004135700
  -0.0002438300    0.0000000000   -0.0000061300
  -0.0000436800    0.0000000000    0.0003542300
  -0.0003013100    0.0000126100   -0.0000126100
  -0.0001024400   -0.0000817300    0.0000817300
   0.0000144000    0.0000018300   -0.0000018300
  -0.0001068800    0.0000809500   -0.0000809500
  -0.0002487400    0.0000000000    0.0000023300
   0.0000548000    0.0000000000   -0.0000105100
  -0.0000193500    0.0000000000    0.0000005400
   0.0000544900    0.0000000000    0.0000127200
  -0.0003013100   -0.0000126100   -0.0000126100
  -0.0001024400    0.0000817300    0.0000817300
   0.0000144000   -0.0000018300   -0.0000018300
  -0.0001068800   -0.0000809500   -0.0000809500
  -0.0039724000   -0.0002134100   -0.0002134100
   0.0012142600    0.0007893000    0.0007893000
   0.0002445600   -0.0000024400   -0.0000024400
   0.0012335900   -0.0007757500   -0.0007757500
  -0.0000293100    0.0000113000   -0.0000003600
   0.0000053200   -0.0001306300    0.0001802500
  -0.0002671600   -0.0000039300   -0.0000033300
   0.0000030400    0.0001336800   -0.0001833900
  -0.0000293100   -0.0000113000   -0.0000003600
   0.0000053200    0.0001306300    0.0001802500
  -0.0002671600    0.0000039300   -0.0000033300
   0.0000030400   -0.0001336800   -0.0001833900
  -0.0039724000    0.0002134100   -0.0002134100
   0.0012142600   -0.0007893000    0.0007893000
   0.0002445600    0.0000024400   -0.0000024400
   0.0012335900    0.0007757500   -0.0007757500
  -0.0000293100   -0.0000003600    0.0000113000
   0.0000053200    0.0001802500   -0.0001306300
  -0.0002671600   -0.0000033300   -0.0000039300
   0.0000030400   -0.0001833900    0.0001336800
   0.0003923900   -0.0000003500   -0.0000003500
  -0.0001646100   -0.0000089300   -0.0000089300
   0.0000581300    0.0000007200    0.0000007200
  -0.0001666700    0.0000100100    0.0000100100
   0.0003923900    0.0000003500   -0.0000003500
  -0.0001646100    0.0000089300   -0.0000089300
   0.0000581300   -0.0000007200    0.0000007200
  -0.0001666700   -0.0000100100    0.0000100100
  -0.0000293100    0.0000003600    0.0000113000
   0.0000053200   -0.0001802500   -0.0001306300
  -0.0002671600    0.0000033300   -0.0000039300
   0.0000030400    0.0001833900    0.0001336800
  -0.0000293100   -0.0000003600   -0.0000113000
   0.0000053200    0.0001802500    0.0001306300
  -0.0002671600   -0.0000033300    0.0000039300
   0.0000030400   -0.0001833900   -0.0001336800
   0.0003923900   -0.0000003500    0.0000003500
  -0.0001646100   -0.0000089300    0.0000089300
   0.0000581300    0.0000007200   -0.0000007200
  -0.0001666700    0.0000100100   -0.0000100100
   0.0003923900    0.0000003500    0.0000003500
  -0.0001646100    0.0000089300    0.0000089300
   0.0000581300   -0.0000007200   -0.0000007200
  -0.0001666700   -0.0000100100   -0.0000100100
  -0.0000293100    0.0000003600   -0.0000113000
   0.0000053200   -0.0001802500    0.0001306300
  -0.0002671600    0.0000033300    0.0000039300
   0.0000030400    0.0001833900   -0.0001336800
  -0.0039724000   -0.0002134100    0.0002134100
   0.0012142600    0.0007893000   -0.0007893000
   0.0002445600   -0.0000024400    0.0000024400
   0.0012335900   -0.0007757500    0.0007757500
  -0.0000293100    0.0000113000    0.0000003600
   0.0000053200   -0.0001306300   -0.0001802500
  -0.0002671600   -0.0000039300    0.0000033300
   0.0000030400    0.0001336800    0.0001833900
  -0.0000293100   -0.0000113000    0.0000003600
   0.0000053200    0.0001306300   -0.0001802500
  -0.0002671600    0.0000039300    0.0000033300
   0.0000030400   -0.0001336800    0.0001833900
  -0.0039724000    0.0002134100    0.0002134100
   0.0012142600   -0.0007893000   -0.0007893000
   0.0002445600    0.0000024400    0.0000024400
   0.0012335900    0.0007757500    0.0007757500
   0.0307347100    0.0000000000    0.0355612700
  -0.0003881500    0.0000000000   -0.0000285300
  -0.0004281300    0.0000000000    0.0000319600
   0.0280615700    0.0000000000   -0.0317673700
   0.0004301700    0.0007857500   -0.0000499800
   0.0000792000   -0.0001398300   -0.0001442300
   0.0000903100    0.0001239800    0.0001340700
   0.0004402500   -0.0007793000    0.0000445000
   0.0001837000    0.0000000000   -0.0001799400
  -0.0000325400    0.0000000000   -0.0000233300
  -0.0000408900    0.0000000000    0.0000253000
   0.0001707300    0.0000000000    0.0001818400
   0.0004301700   -0.0007857500   -0.0000499800
   0.0000792000    0.0001398300   -0.0001442300
   0.0000903100   -0.0001239800    0.0001340700
   0.0004402500    0.0007793000    0.0000445000
  -0.0000898400    0.0000000000   -0.0000323200
   0.0006993500    0.0000000000    0.0003966400
   0.0007076200    0.0000000000   -0.0003833100
  -0.0000830600    0.0000000000    0.0000297900
  -0.0000664200    0.0001822900   -0.0001418800
  -0.0001291400   -0.0000077200    0.0000184400
  -0.0001286800    0.0000123000   -0.0000171300
  -0.0000655700   -0.0001819800    0.0001357800
  -0.0000042100    0.0000000000   -0.0000248700
   0.0000574200    0.0000000000    0.0000642700
   0.0000561000    0.0000000000   -0.0000616100
  -0.0000022500    0.0000000000    0.0000231500
  -0.0000664200   -0.0001822900   -0.0001418800
  -0.0001291400    0.0000077200    0.0000184400
  -0.0001286800   -0.0000123000   -0.0000171300
  -0.0000655700    0.0001819800    0.0001357800
  -0.0000898400    0.0000000000    0.0000323200
   0.0006993500    0.0000000000   -0.0003966400
   0.0007076200    0.0000000000    0.0003833100
  -0.0000830600    0.0000000000   -0.0000297900
  -0.0000664200    0.0001822900    0.0001418800
  -0.0001291400   -0.0000077200   -0.0000184400
  -0.0001286800    0.0000123000    0.0000171300
  -0.0000655700   -0.0001819800   -0.0001357800
  -0.0000042100    0.0000000000    0.0000248700
   0.0000574200    0.0000000000   -0.0000642700
   0.0000561000    0.0000000000    0.0000616100
  -0.0000022500    0.0000000000   -0.0000231500
  -0.0000664200   -0.0001822900    0.0001418800
  -0.0001291400    0.0000077200   -0.0000184400
  -0.0001286800   -0.0000123000    0.0000171300
  -0.0000655700    0.0001819800   -0.0001357800
   0.0307347100    0.0000000000   -0.0355612700
  -0.0003881500    0.0000000000    0.0000285300
  -0.0004281300    0.0000000000   -0.0000319600
   0.0280615700    0.0000000000    0.0317673700
   0.0004301700    0.0007857500    0.0000499800
   0.0000792000   -0.0001398300    0.0001442300
   0.0000903100    0.0001239800   -0.0001340700
   0.0004402500   -0.0007793000   -0.0000445000
   0.0001837000    0.0000000000    0.0001799400
  -0.0000325400    0.0000000000    0.0000233300
  -0.0000408900    0.0000000000   -0.0000253000
   0.0001707300    0.0000000000   -0.0001818400
   0.0004301700   -0.0007857500    0.0000499800
   0.0000792000    0.0001398300    0.0001442300
   0.0000903100   -0.0001239800   -0.0001340700
   0.0004402500    0.0007793000   -0.0000445000
   0.0307347100    0.0355612700    0.0000000000
  -0.0003881500   -0.0000285300   -0.0000000000
  -0.0004281300    0.0000319600   -0.0000000000
   0.0280615700   -0.0317673700   -0.0000000000
  -0.0000898400   -0.0000323200   -0.0000000000
   0.0006993500    0.0003966400    0.0000000000
   0.0007076200   -0.0003833100   -0.0000000000
  -0.0000830600    0.0000297900   -0.0000000000
  -0.0000898400    0.0000323200   -0.0000000000
   0.0006993500   -0.0003966400   -0.0000000000
   0.0007076200    0.0003833100    0.0000000000
  -0.0000830600   -0.0000297900   -0.0000000000
   0.0307347100   -0.0355612700   -0.0000000000
  -0.0003881500    0.0000285300   -0.0000000000
  -0.0004281300   -0.0000319600   -0.0000000000
   0.0280615700    0.0317673700    0.0000000000
   0.0004301700   -0.0000499800    0.0007857500
   0.0000792000   -0.0001442300   -0.0001398300
   0.0000903100    0.0001340700    0.0001239800
   0.0004402500    0.0000445000   -0.0007793000
  -0.0000664200   -0.0001418800    0.0001822900
  -0.0001291400    0.0000184400   -0.0000077200
  -0.0001286800   -0.0000171300    0.0000123000
  -0.0000655700    0.0001357800   -0.0001819800
  -0.0000664200    0.0001418800    0.0001822900
  -0.0001291400   -0.0000184400   -0.0000077200
  -0.0001286800    0.0000171300    0.0000123000
  -0.0000655700   -0.0001357800   -0.0001819800
   0.0004301700    0.0000499800    0.0007857500
   0.0000792000    0.0001442300   -0.0001398300
   0.0000903100   -0.0001340700    0.0001239800
   0.0004402500   -0.0000445000   -0.0007793000
   0.0001837000   -0.0001799400   -0.0000000000
  -0.0000325400   -0.0000233300   -0.0000000000
  -0.0000408900    0.0000253000   -0.0000000000
   0.0001707300    0.0001818400   -0.0000000000
  -0.0000042100   -0.0000248700   -0.0000000000
   0.0000574200    0.0000642700   -0.0000000000
   0.0000561000   -0.0000616100   -0.0000000000
  -0.0000022500    0.0000231500   -0.0000000000
  -0.0000042100    0.0000248700   -0.0000000000
   0.0000574200   -0.0000642700   -0.0000000000
   0.0000561000    0.0000616100   -0.0000000000
  -0.0000022500   -0.0000231500   -0.0000000000
   0.0001837000    0.0001799400   -0.0000000000
  -0.0000325400    0.0000233300   -0.0000000000
  -0.0000408900   -0.0000253000   -0.0000000000
   0.0001707300   -0.0001818400   -0.0000000000
   0.0004301700   -0.0000499800   -0.0007857500
   0.0000792000   -0.0001442300    0.0001398300
   0.0000903100    0.0001340700   -0.0001239800
   0.0004402500    0.0000445000    0.0007793000
  -0.0000664200   -0.0001418800   -0.0001822900
  -0.0001291400    0.0000184400    0.0000077200
  -0.0001286800   -0.0000171300   -0.0000123000
  -0.0000655700    0.0001357800    0.0001819800
  -0.0000664200    0.0001418800   -0.0001822900
  -0.0001291400   -0.0000184400    0.0000077200
  -0.0001286800    0.0000171300   -0.0000123000
  -0.0000655700   -0.0001357800    0.0001819800
   0.0004301700    0.0000499800   -0.0007857500
   0.0000792000    0.0001442300    0.0001398300
   0.0000903100   -0.0001340700   -0.0001239800
   0.0004402500   -0.0000445000    0.0007793000
